/*--------------------------------*- C++ -*----------------------------------*\
| =========                 |                                                 |
| \\      /  F ield         | OpenFOAM: The Open Source CFD Toolbox           |
|  \\    /   O peration     | Version:  v1812                                 |
|   \\  /    A nd           | Web:      www.OpenFOAM.com                      |
|    \\/     M anipulation  |                                                 |
\*---------------------------------------------------------------------------*/
FoamFile
{
    version     2.0;
    format      ascii;
    class       volScalarField;
    location    "0.4";
    object      T;
}
// * * * * * * * * * * * * * * * * * * * * * * * * * * * * * * * * * * * * * //

dimensions      [0 0 0 1 0 0 0];


internalField   nonuniform List<scalar> 
400
(
300.019
300.058
300.098
300.142
300.189
300.239
300.29
300.341
300.389
300.43
300.46
300.477
300.477
300.461
300.426
300.374
300.308
300.228
300.14
300.047
300.058
300.176
300.3
300.433
300.577
300.73
300.889
301.047
301.194
301.319
301.413
301.464
301.467
301.416
301.309
301.15
300.944
300.701
300.431
300.145
300.1
300.302
300.515
300.745
300.994
301.26
301.538
301.814
302.072
302.293
302.459
302.551
302.558
302.47
302.284
302.007
301.647
301.222
300.75
300.253
300.145
300.44
300.751
301.088
301.455
301.851
302.264
302.677
303.065
303.399
303.651
303.795
303.81
303.683
303.409
302.996
302.458
301.823
301.118
300.376
300.196
300.594
301.014
301.472
301.974
302.517
303.089
303.663
304.204
304.674
305.033
305.243
305.274
305.107
304.735
304.164
303.419
302.534
301.554
300.523
300.252
300.765
301.309
301.903
302.559
303.273
304.028
304.789
305.513
306.145
306.634
306.929
306.988
306.783
306.301
305.551
304.562
303.383
302.073
300.697
300.315
300.956
301.637
302.385
303.215
304.123
305.088
306.065
306.999
307.822
308.467
308.868
308.971
308.734
308.137
307.186
305.916
304.39
302.691
300.903
300.384
301.167
302.001
302.919
303.943
305.068
306.266
307.484
308.654
309.693
310.519
311.052
311.218
310.962
310.252
309.085
307.5
305.575
303.419
301.147
300.461
301.398
302.398
303.503
304.737
306.096
307.546
309.023
310.447
311.723
312.753
313.442
313.699
313.449
312.639
311.253
309.327
306.953
304.269
301.431
300.544
301.65
302.829
304.132
305.588
307.19
308.898
310.64
312.324
313.848
315.102
315.975
316.359
316.152
315.275
313.687
311.409
308.539
305.254
301.762
300.634
301.92
303.288
304.797
306.477
308.32
310.278
312.274
314.212
315.983
317.473
318.561
319.117
319.012
318.125
316.376
313.755
310.357
306.393
302.144
300.731
302.209
303.774
305.489
307.385
309.451
311.634
313.855
316.021
318.028
319.761
321.093
321.878
321.95
321.141
319.307
316.384
312.44
307.717
302.59
300.838
302.523
304.289
306.203
308.296
310.55
312.915
315.317
317.672
319.889
321.862
323.465
324.537
324.878
324.262
322.46
319.317
314.837
309.274
303.118
300.963
302.879
304.852
306.955
309.214
311.614
314.109
316.637
319.132
321.521
323.716
325.599
327.005
327.708
327.417
325.805
322.581
317.622
311.141
303.758
301.126
303.32
305.522
307.809
310.213
312.722
315.299
317.9
320.48
322.989
325.362
327.499
329.247
330.371
330.532
329.296
326.196
320.893
313.446
304.567
301.378
303.969
306.466
308.975
311.537
314.146
316.779
319.409
322.012
324.563
327.023
329.324
331.344
332.868
333.549
332.869
330.163
324.773
316.398
305.66
301.863
305.151
308.146
311.01
313.803
316.534
319.201
321.799
324.331
326.796
329.186
331.47
333.576
335.347
336.483
336.455
334.445
329.391
320.335
307.294
303.033
307.811
311.761
315.195
318.27
321.073
323.658
326.07
328.344
330.51
332.588
334.582
336.472
338.177
339.503
340.029
338.937
334.831
325.769
310.09
306.67
314.697
319.991
323.824
326.826
329.304
331.425
333.293
334.978
336.53
337.986
339.37
340.69
341.928
343.004
343.7
343.467
340.992
333.408
315.617
321.729
332.402
336.83
339.304
340.933
342.122
343.053
343.821
344.481
345.068
345.605
346.107
346.582
347.031
347.442
347.766
347.868
347.301
343.942
328.258
)
;

boundaryField
{
    movingWall
    {
        type            fixedValue;
        value           uniform 350;
    }
    fixedWalls
    {
        type            fixedValue;
        value           uniform 300;
    }
    frontAndBack
    {
        type            empty;
    }
}


// ************************************************************************* //
