/*--------------------------------*- C++ -*----------------------------------*\
| =========                 |                                                 |
| \\      /  F ield         | OpenFOAM: The Open Source CFD Toolbox           |
|  \\    /   O peration     | Version:  v1812                                 |
|   \\  /    A nd           | Web:      www.OpenFOAM.com                      |
|    \\/     M anipulation  |                                                 |
\*---------------------------------------------------------------------------*/
FoamFile
{
    version     2.0;
    format      ascii;
    class       volScalarField;
    location    "0.5";
    object      T;
}
// * * * * * * * * * * * * * * * * * * * * * * * * * * * * * * * * * * * * * //

dimensions      [0 0 0 1 0 0 0];


internalField   nonuniform List<scalar> 
400
(
300.03
300.091
300.152
300.215
300.279
300.344
300.408
300.469
300.522
300.564
300.593
300.605
300.598
300.571
300.523
300.457
300.373
300.276
300.169
300.057
300.091
300.274
300.461
300.652
300.848
301.046
301.242
301.426
301.589
301.72
301.808
301.844
301.823
301.74
301.595
301.392
301.137
300.841
300.516
300.174
300.155
300.465
300.782
301.108
301.443
301.784
302.12
302.438
302.72
302.948
303.102
303.168
303.134
302.993
302.745
302.395
301.957
301.447
300.887
300.299
300.222
300.668
301.123
301.594
302.08
302.575
303.067
303.534
303.95
304.288
304.52
304.624
304.58
304.379
304.019
303.51
302.868
302.12
301.299
300.437
300.294
300.885
301.49
302.117
302.768
303.435
304.101
304.736
305.306
305.772
306.099
306.251
306.205
305.943
305.464
304.776
303.905
302.887
301.769
300.595
300.371
301.118
301.885
302.682
303.514
304.372
305.232
306.058
306.804
307.421
307.861
308.078
308.04
307.72
307.113
306.229
305.099
303.773
302.311
300.776
300.455
301.37
302.31
303.293
304.323
305.391
306.466
307.504
308.45
309.24
309.815
310.118
310.102
309.732
308.994
307.897
306.478
304.798
302.939
300.987
300.544
301.639
302.766
303.948
305.193
306.487
307.797
309.068
310.233
311.219
311.952
312.363
312.39
311.985
311.121
309.801
308.062
305.982
303.667
301.23
300.639
301.926
303.252
304.646
306.117
307.652
309.209
310.725
312.124
313.324
314.237
314.783
314.881
314.467
313.494
311.951
309.871
307.345
304.507
301.512
300.74
302.229
303.764
305.378
307.084
308.864
310.67
312.435
314.075
315.499
316.613
317.323
317.532
317.149
316.102
314.352
311.922
308.908
305.478
301.837
300.847
302.547
304.298
306.137
308.075
310.093
312.139
314.142
316.014
317.666
318.998
319.906
320.273
319.981
318.918
317.005
314.235
310.698
306.599
302.214
300.959
302.881
304.852
306.91
309.069
311.304
313.563
315.775
317.861
319.733
321.294
322.434
323.019
322.896
321.903
319.903
316.83
312.752
307.904
302.653
301.08
303.234
305.425
307.692
310.045
312.461
314.891
317.271
319.536
321.609
323.403
324.807
325.672
325.811
325.003
323.03
319.736
315.125
309.444
303.175
301.216
303.62
306.031
308.489
311.003
313.553
316.101
318.6
321
323.244
325.261
326.944
328.141
328.636
328.148
326.357
322.977
317.888
311.295
303.809
301.386
304.081
306.722
309.356
312
314.643
317.263
319.832
322.32
324.692
326.893
328.838
330.38
331.296
331.256
329.835
326.575
321.14
313.586
304.613
301.639
304.727
307.651
310.481
313.255
315.978
318.643
321.241
323.762
326.192
328.499
330.625
332.453
333.779
334.261
333.395
330.526
325.002
316.524
305.7
302.112
305.871
309.249
312.386
315.35
318.169
320.858
323.429
325.895
328.263
330.529
332.668
334.611
336.206
337.16
336.956
334.786
329.601
320.445
307.329
303.249
308.427
312.678
316.312
319.506
322.369
324.971
327.366
329.596
331.696
333.687
335.578
337.346
338.916
340.096
340.473
339.24
335.015
325.862
310.118
306.82
315.112
320.589
324.539
327.612
330.128
332.263
334.125
335.789
337.307
338.716
340.042
341.292
342.447
343.432
344.03
343.698
341.132
333.477
315.637
321.778
332.538
337.026
339.54
341.195
342.399
343.337
344.106
344.761
345.339
345.863
346.346
346.8
347.223
347.604
347.895
347.962
347.361
343.973
328.267
)
;

boundaryField
{
    movingWall
    {
        type            fixedValue;
        value           uniform 350;
    }
    fixedWalls
    {
        type            fixedValue;
        value           uniform 300;
    }
    frontAndBack
    {
        type            empty;
    }
}


// ************************************************************************* //
