/*--------------------------------*- C++ -*----------------------------------*\
| =========                 |                                                 |
| \\      /  F ield         | OpenFOAM: The Open Source CFD Toolbox           |
|  \\    /   O peration     | Version:  v1812                                 |
|   \\  /    A nd           | Web:      www.OpenFOAM.com                      |
|    \\/     M anipulation  |                                                 |
\*---------------------------------------------------------------------------*/
FoamFile
{
    version     2.0;
    format      ascii;
    class       volScalarField;
    location    "0.1";
    object      T;
}
// * * * * * * * * * * * * * * * * * * * * * * * * * * * * * * * * * * * * * //

dimensions      [0 0 0 1 0 0 0];


internalField   nonuniform List<scalar> 
400
(
300
300
300
300
300
300
300
300.001
300.001
300.001
300.001
300.002
300.002
300.002
300.002
300.002
300.002
300.001
300.001
300
300
300
300
300
300
300.001
300.001
300.002
300.003
300.004
300.005
300.006
300.007
300.008
300.009
300.008
300.007
300.005
300.003
300.001
300
300
300
300.001
300.001
300.002
300.003
300.004
300.006
300.009
300.012
300.015
300.018
300.02
300.021
300.02
300.018
300.014
300.008
300.003
300
300
300.001
300.001
300.002
300.004
300.006
300.009
300.014
300.02
300.027
300.034
300.041
300.046
300.049
300.047
300.041
300.031
300.019
300.006
300
300.001
300.002
300.003
300.005
300.008
300.012
300.019
300.029
300.042
300.057
300.073
300.089
300.101
300.106
300.103
300.089
300.068
300.042
300.014
300
300.002
300.003
300.005
300.009
300.015
300.024
300.038
300.058
300.084
300.116
300.151
300.185
300.211
300.223
300.216
300.189
300.144
300.089
300.03
300.001
300.003
300.006
300.01
300.017
300.028
300.047
300.074
300.113
300.164
300.227
300.298
300.366
300.421
300.448
300.437
300.383
300.292
300.18
300.06
300.002
300.006
300.011
300.019
300.032
300.053
300.087
300.138
300.21
300.306
300.425
300.559
300.691
300.8
300.857
300.84
300.74
300.567
300.348
300.115
300.003
300.011
300.02
300.034
300.057
300.096
300.156
300.247
300.375
300.546
300.757
300.997
301.238
301.441
301.554
301.535
301.361
301.047
300.643
300.212
300.007
300.02
300.037
300.062
300.102
300.169
300.272
300.426
300.642
300.929
301.284
301.688
302.1
302.454
302.666
302.656
302.375
301.839
301.134
300.374
300.013
300.037
300.067
300.11
300.18
300.292
300.463
300.712
301.057
301.51
302.068
302.706
303.365
303.946
304.317
304.341
303.923
303.068
301.903
300.628
300.024
300.071
300.123
300.198
300.316
300.498
300.769
301.154
301.675
302.348
303.171
304.112
305.096
305.988
306.595
306.701
306.134
304.857
303.041
301.006
300.047
300.135
300.229
300.359
300.555
300.847
301.263
301.831
302.576
303.515
304.648
305.942
307.311
308.586
309.514
309.777
309.083
307.308
304.635
301.541
300.095
300.262
300.435
300.662
300.989
301.449
302.069
302.874
303.883
305.114
306.569
308.223
309.99
311.688
313.008
313.523
312.778
310.483
306.764
302.267
300.194
300.524
300.85
301.258
301.806
302.523
303.424
304.517
305.814
307.328
309.068
311.023
313.129
315.216
316.953
317.816
317.153
314.411
309.519
303.23
300.411
301.085
301.727
302.477
303.398
304.495
305.758
307.176
308.748
310.487
312.41
314.531
316.822
319.162
321.249
322.51
322.104
319.112
313.04
304.524
300.914
302.351
303.657
305.04
306.542
308.14
309.803
311.517
313.281
315.116
317.052
319.125
321.354
323.69
325.918
327.517
327.532
324.635
317.596
306.383
302.196
305.383
308.009
310.383
312.591
314.657
316.595
318.424
320.174
321.881
323.591
325.353
327.216
329.198
331.209
332.891
333.375
331.046
323.66
309.408
306.085
313.049
317.55
320.787
323.314
325.391
327.153
328.689
330.062
331.326
332.529
333.717
334.939
336.236
337.61
338.919
339.638
338.354
331.964
315.166
321.538
331.866
336.038
338.318
339.791
340.847
341.658
342.314
342.868
343.354
343.797
344.22
344.641
345.081
345.552
346.037
346.422
346.252
343.34
328.066
)
;

boundaryField
{
    movingWall
    {
        type            fixedValue;
        value           uniform 350;
    }
    fixedWalls
    {
        type            fixedValue;
        value           uniform 300;
    }
    frontAndBack
    {
        type            empty;
    }
}


// ************************************************************************* //
