/*--------------------------------*- C++ -*----------------------------------*\
| =========                 |                                                 |
| \\      /  F ield         | OpenFOAM: The Open Source CFD Toolbox           |
|  \\    /   O peration     | Version:  v1812                                 |
|   \\  /    A nd           | Web:      www.OpenFOAM.com                      |
|    \\/     M anipulation  |                                                 |
\*---------------------------------------------------------------------------*/
FoamFile
{
    version     2.0;
    format      ascii;
    class       volScalarField;
    location    "0.3";
    object      T;
}
// * * * * * * * * * * * * * * * * * * * * * * * * * * * * * * * * * * * * * //

dimensions      [0 0 0 1 0 0 0];


internalField   nonuniform List<scalar> 
400
(
300.008
300.023
300.04
300.061
300.084
300.111
300.142
300.175
300.208
300.238
300.264
300.282
300.289
300.285
300.268
300.238
300.198
300.148
300.091
300.031
300.023
300.071
300.125
300.187
300.261
300.346
300.442
300.545
300.648
300.744
300.825
300.881
300.905
300.892
300.838
300.746
300.618
300.461
300.284
300.096
300.041
300.126
300.22
300.331
300.462
300.615
300.788
300.973
301.161
301.336
301.483
301.586
301.631
301.608
301.512
301.345
301.113
300.83
300.511
300.172
300.061
300.189
300.332
300.5
300.701
300.937
301.206
301.495
301.789
302.065
302.298
302.463
302.538
302.505
302.357
302.097
301.735
301.293
300.795
300.268
300.086
300.265
300.467
300.705
300.992
301.332
301.72
302.141
302.571
302.978
303.324
303.572
303.688
303.648
303.438
303.06
302.532
301.885
301.158
300.389
300.116
300.356
300.628
300.952
301.345
301.813
302.35
302.937
303.539
304.112
304.603
304.961
305.136
305.092
304.809
304.286
303.549
302.642
301.621
300.545
300.151
300.465
300.821
301.248
301.768
302.391
303.111
303.899
304.712
305.489
306.162
306.659
306.913
306.874
306.508
305.814
304.822
303.592
302.203
300.739
300.193
300.593
301.048
301.596
302.267
303.073
304.007
305.032
306.092
307.11
307.999
308.666
309.025
309.003
308.554
307.666
306.374
304.755
302.918
300.978
300.241
300.742
301.311
301.998
302.841
303.856
305.03
306.321
307.657
308.946
310.081
310.949
311.44
311.458
310.935
309.845
308.217
306.146
303.776
301.265
300.297
300.912
301.61
302.453
303.485
304.727
306.16
307.732
309.36
310.937
312.34
313.437
314.093
314.186
313.617
312.333
310.352
307.776
304.787
301.604
300.36
301.104
301.946
302.957
304.19
305.665
307.358
309.209
311.126
312.992
314.674
316.024
316.887
317.107
316.545
315.106
312.776
309.655
305.966
301.999
300.433
301.323
302.319
303.507
304.943
306.644
308.58
310.686
312.866
315.004
316.963
318.588
319.704
320.121
319.648
318.128
315.49
311.807
307.335
302.461
300.518
301.574
302.739
304.108
305.738
307.642
309.785
312.102
314.501
316.874
319.095
321.007
322.425
323.123
322.851
321.367
318.505
314.273
308.936
303.004
300.626
301.88
303.231
304.783
306.595
308.67
310.973
313.443
316.002
318.56
321.007
323.201
324.954
326.016
326.074
324.783
321.839
317.119
310.846
303.659
300.778
302.292
303.867
305.621
307.609
309.832
312.251
314.817
317.47
320.143
322.754
325.186
327.266
328.739
329.246
328.331
325.511
320.443
313.189
304.481
301.029
302.943
304.837
306.858
309.059
311.434
313.946
316.557
319.229
321.924
324.591
327.151
329.468
331.315
332.324
331.957
329.529
324.368
316.175
305.587
301.531
304.183
306.64
309.096
311.607
314.165
316.746
319.334
321.92
324.496
327.045
329.534
331.882
333.925
335.35
335.61
333.864
329.031
320.143
307.233
302.747
306.99
310.523
313.664
316.548
319.235
321.764
324.167
326.473
328.708
330.889
333.022
335.081
336.985
338.534
339.295
338.43
334.522
325.612
310.042
306.473
314.147
319.191
322.857
325.751
328.161
330.246
332.101
333.796
335.38
336.887
338.343
339.756
341.108
342.318
343.166
343.089
340.759
333.292
315.583
321.665
332.224
336.57
338.989
340.579
341.743
342.658
343.419
344.079
344.673
345.224
345.746
346.248
346.733
347.186
347.559
347.715
347.202
343.89
328.242
)
;

boundaryField
{
    movingWall
    {
        type            fixedValue;
        value           uniform 350;
    }
    fixedWalls
    {
        type            fixedValue;
        value           uniform 300;
    }
    frontAndBack
    {
        type            empty;
    }
}


// ************************************************************************* //
