/*--------------------------------*- C++ -*----------------------------------*\
| =========                 |                                                 |
| \\      /  F ield         | OpenFOAM: The Open Source CFD Toolbox           |
|  \\    /   O peration     | Version:  v1812                                 |
|   \\  /    A nd           | Web:      www.OpenFOAM.com                      |
|    \\/     M anipulation  |                                                 |
\*---------------------------------------------------------------------------*/
FoamFile
{
    version     2.0;
    format      ascii;
    class       volScalarField;
    location    "0.2";
    object      T;
}
// * * * * * * * * * * * * * * * * * * * * * * * * * * * * * * * * * * * * * //

dimensions      [0 0 0 1 0 0 0];


internalField   nonuniform List<scalar> 
400
(
300.001
300.003
300.006
300.009
300.014
300.02
300.028
300.037
300.047
300.058
300.068
300.077
300.083
300.085
300.083
300.075
300.064
300.048
300.03
300.01
300.003
300.01
300.018
300.029
300.044
300.064
300.089
300.12
300.154
300.189
300.224
300.253
300.272
300.279
300.271
300.247
300.208
300.157
300.097
300.033
300.006
300.019
300.034
300.056
300.084
300.122
300.171
300.23
300.297
300.368
300.436
300.494
300.534
300.548
300.532
300.485
300.408
300.307
300.19
300.064
300.01
300.03
300.056
300.091
300.14
300.204
300.287
300.389
300.505
300.628
300.748
300.851
300.923
300.95
300.924
300.842
300.708
300.532
300.328
300.111
300.015
300.047
300.087
300.142
300.218
300.321
300.454
300.619
300.808
301.011
301.21
301.382
301.504
301.553
301.514
301.381
301.161
300.871
300.536
300.18
300.022
300.07
300.13
300.212
300.327
300.485
300.691
300.945
301.241
301.561
301.876
302.152
302.35
302.435
302.38
302.174
301.829
301.371
300.843
300.283
300.032
300.101
300.187
300.307
300.477
300.709
301.015
301.396
301.839
302.321
302.799
303.222
303.532
303.671
303.599
303.297
302.777
302.083
301.279
300.428
300.045
300.142
300.265
300.435
300.675
301.008
301.446
301.993
302.631
303.327
304.022
304.642
305.103
305.323
305.238
304.814
304.066
303.055
301.875
300.627
300.062
300.197
300.366
300.6
300.933
301.392
301.997
302.751
303.633
304.594
305.559
306.428
307.087
307.42
307.332
306.769
305.741
304.326
302.658
300.888
300.085
300.268
300.495
300.811
301.256
301.869
302.674
303.673
304.838
306.108
307.389
308.554
309.455
309.941
309.876
309.172
307.824
305.923
303.649
301.218
300.115
300.359
300.661
301.074
301.653
302.444
303.474
304.741
306.213
307.817
309.442
310.938
312.126
312.813
312.814
311.995
310.312
307.858
304.862
301.624
300.155
300.479
300.871
301.4
302.133
303.118
304.385
305.927
307.706
309.642
311.615
313.46
314.972
315.916
316.052
315.176
313.183
310.139
306.312
302.113
300.211
300.641
301.147
301.813
302.715
303.904
305.404
307.205
309.263
311.5
313.796
315.983
317.844
319.107
319.469
318.638
316.41
312.779
308.027
302.694
300.293
300.873
301.526
302.358
303.451
304.851
306.571
308.594
310.88
313.356
315.918
318.411
320.619
322.251
322.945
322.301
319.972
315.815
310.062
303.392
300.427
301.237
302.101
303.153
304.474
306.099
308.025
310.229
312.673
315.302
318.036
320.752
323.258
325.269
326.383
326.092
323.863
319.321
312.529
304.259
300.674
301.881
303.091
304.473
306.106
307.996
310.124
312.461
314.979
317.646
320.414
323.206
325.881
328.192
329.744
329.953
328.081
323.41
315.629
305.406
301.192
303.179
305.031
306.967
309.045
311.252
313.563
315.958
318.431
320.977
323.587
326.232
328.838
331.237
333.102
333.856
332.607
328.222
319.7
307.089
302.456
306.143
309.215
311.995
314.596
317.062
319.419
321.694
323.917
326.116
328.314
330.526
332.734
334.866
336.721
337.853
337.39
333.862
325.263
309.933
306.274
313.586
318.36
321.827
324.568
326.859
328.847
330.626
332.265
333.814
335.313
336.792
338.267
339.728
341.101
342.166
342.347
340.283
333.046
315.509
321.601
332.044
336.305
338.658
340.199
341.322
342.205
342.938
343.577
344.155
344.698
345.221
345.736
346.249
346.747
347.186
347.425
347.006
343.784
328.21
)
;

boundaryField
{
    movingWall
    {
        type            fixedValue;
        value           uniform 350;
    }
    fixedWalls
    {
        type            fixedValue;
        value           uniform 300;
    }
    frontAndBack
    {
        type            empty;
    }
}


// ************************************************************************* //
